# vtk DataFile Version 3.0
Density interpolation

ASCII
DATASET STRUCTURED_POINTS
DIMENSIONS 59 74 21
ORIGIN 314569.000000 4743673.000000 -8791.000000
SPACING 500.000000 500.000000 500.000000
POINT_DATA 91686
SCALARS density_normal float 1
LOOKUP_TABLE default
0.000000
0.000000
0.000000
0.000000
0.000000
0.000000
0.000000
0.000000
0.000000
0.000000
0.000000
0.000000
0.000000
0.000000
0.000000
0.000000
0.000001
0.000002
0.000004
0.000007
0.000013
0.000022
0.000038
0.000062
0.000098
0.000151
0.000226
0.000329
0.000469
0.000653
0.000894
0.001204
0.001597
0.002087
0.002690
0.003412
0.004257
0.005210
0.006244
0.007316
0.008372
0.009352
0.010206
0.010899
0.011427
0.011817
0.012124
0.012425
0.012796
0.013301
0.013971
0.014793
0.015708
0.016615
0.017389
0.017896
0.018024
0.017695
0.016885
0.000000
0.000000
0.000000
0.000000
0.000000
0.000000
0.000000
0.000000
0.000000
0.000000
0.000000
0.000000
0.000000
0.000000
0.000000
0.000001
0.000002
0.000003
0.000006
0.000012
0.000021
0.000037
0.000063
0.000102
0.000161
0.000248
0.000369
0.000536
0.000758
0.001049
0.001423
0.001895
0.002483
0.003205
0.004076
0.005106
0.006294
0.007623
0.009055
0.010532
0.011979
0.013313
0.014459
0.015365
0.016009
0.016415
0.016641
0.016776
0.016916
0.017145
0.017515
0.018029
0.018640
0.019255
0.019748
0.019988
0.019859
0.019283
0.018236
0.000000
0.000000
0.000000
0.000000
0.000000
0.000000
0.000000
0.000000
0.000000
0.000000
0.000000
0.000000
0.000000
0.000000
0.000001
0.000001
0.000003
0.000005
0.000010
0.000019
0.000034
0.000059
0.000100
0.000163
0.000257
0.000393
0.000585
0.000846
0.001192
0.001640
0.002208
0.002914
0.003780
0.004824
0.006063
0.007506
0.009149
0.010968
0.012912
0.014905
0.016847
0.018629
0.020144
0.021312
0.022095
0.022502
0.022594
0.022472
0.022252
0.022046
0.021931
0.021940
0.022045
0.022170
0.022202
0.022018
0.021505
0.020588
0.019245
0.000000
0.000000
0.000000
0.000000
0.000000
0.000000
0.000000
0.000000
0.000000
0.000000
0.000000
0.000000
0.000000
0.000000
0.000001
0.000002
0.000004
0.000008
0.000016
0.000029
0.000053
0.000091
0.000154
0.000251
0.000395
0.000604
0.000897
0.001295
0.001819
0.002492
0.003336
0.004373
0.005626
0.007113
0.008849
0.010842
0.013080
0.015528
0.018122
0.020762
0.023321
0.025655
0.027622
0.029109
0.030048
0.030434
0.030326
0.029834
0.029101
0.028268
0.027452
0.026721
0.026083
0.025489
0.024851
0.024061
0.023017
0.021652
0.019944
0.000000
0.000000
0.000000
0.000000
0.000000
0.000000
0.000000
0.000000
0.000000
0.000000
0.000000
0.000000
0.000000
0.000001
0.000001
0.000003
0.000006
0.000012
0.000024
0.000044
0.000079
0.000137
0.000230
0.000374
0.000589
0.000900
0.001335
0.001923
0.002695
0.003681
0.004908
0.006401
0.008181
0.010265
0.012665
0.015377
0.018382
0.021631
0.025038
0.028478
0.031789
0.034789
0.037294
0.039149
0.040254
0.040581
0.040184
0.039185
0.037753
0.036070
0.034302
0.032565
0.030917
0.029352
0.027814
0.026220
0.024488
0.022557
0.020407
0.000000
0.000000
0.000000
0.000000
0.000000
0.000000
0.000000
0.000000
0.000000
0.000000
0.000000
0.000000
0.000000
0.000001
0.000002
0.000005
0.000009
0.000018
0.000035
0.000064
0.000115
0.000199
0.000334
0.000542
0.000853
0.001301
0.001927
0.002772
0.003878
0.005285
0.007026
0.009128
0.011611
0.014486
0.017752
0.021395
0.025377
0.029628
0.034037
0.038447
0.042657
0.046438
0.049560
0.051818
0.053075
0.053277
0.052470
0.050790
0.048438
0.045649
0.042647
0.039614
0.036670
0.033865
0.031188
0.028591
0.026010
0.023395
0.020723
0.000000
0.000000
0.000000
0.000000
0.000000
0.000000
0.000000
0.000000
0.000000
0.000000
0.000000
0.000000
0.000001
0.000002
0.000003
0.000007
0.000014
0.000027
0.000050
0.000092
0.000164
0.000282
0.000471
0.000763
0.001198
0.001825
0.002700
0.003879
0.005421
0.007376
0.009786
0.012680
0.016074
0.019966
0.024341
0.029162
0.034365
0.039851
0.045475
0.051037
0.056292
0.060959
0.064752
0.067419
0.068776
0.068744
0.067362
0.064784
0.061256
0.057072
0.052531
0.047897
0.043366
0.039056
0.035010
0.031220
0.027644
0.024238
0.020973
0.000000
0.000000
0.000000
0.000000
0.000000
0.000000
0.000000
0.000000
0.000000
0.000000
0.000000
0.000001
0.000001
0.000002
0.000005
0.000010
0.000020
0.000038
0.000071
0.000129
0.000228
0.000390
0.000648
0.001046
0.001638
0.002491
0.003678
0.005278
0.007366
0.010010
0.013262
0.017152
0.021688
0.026854
0.032610
0.038886
0.045581
0.052554
0.059613
0.066508
0.072940
0.078569
0.083051
0.086081
0.087431
0.086999
0.084825
0.081090
0.076093
0.070204
0.063814
0.057279
0.050886
0.044830
0.039217
0.034075
0.029387
0.025109
0.021202
0.000000
0.000000
0.000000
0.000000
0.000000
0.000000
0.000000
0.000000
0.000000
0.000000
0.000000
0.000001
0.000002
0.000004
0.000007
0.000015
0.000028
0.000054
0.000099
0.000178
0.000311
0.000529
0.000873
0.001402
0.002186
0.003313
0.004881
0.006990
0.009742
0.013222
0.017494
0.022591
0.028513
0.035222
0.042641
0.050659
0.059123
0.067834
0.076538
0.084925
0.092628
0.099245
0.104374
0.107654
0.108824
0.107766
0.104529
0.099339
0.092561
0.084657
0.076122
0.067420
0.058935
0.050947
0.043621
0.037026
0.031158
0.025971
0.021404
0.000000
0.000000
0.000000
0.000000
0.000000
0.000000
0.000000
0.000000
0.000000
0.000000
0.000001
0.000001
0.000003
0.000005
0.000011
0.000021
0.000040
0.000075
0.000137
0.000242
0.000419
0.000705
0.001155
0.001841
0.002855
0.004307
0.006322
0.009030
0.012557
0.017013
0.022477
0.028985
0.036523
0.045027
0.054378
0.064406
0.074890
0.085556
0.096075
0.106057
0.115062
0.122622
0.128275
0.131616
0.132361
0.130390
0.125783
0.118822
0.109960
0.099764
0.088843
0.077775
0.067049
0.057023
0.047923
0.039847
0.032800
0.026721
0.021523
0.000000
0.000000
0.000000
0.000000
0.000000
0.000000
0.000000
0.000000
0.000000
0.000000
0.000001
0.000002
0.000004
0.000008
0.000016
0.000031
0.000057
0.000105
0.000188
0.000328
0.000559
0.000929
0.001506
0.002380
0.003662
0.005489
0.008015
0.011401
0.015804
0.021358
0.028159
0.036245
0.045591
0.056097
0.067593
0.079837
0.092525
0.105291
0.117711
0.129305
0.139552
0.147915
0.153881
0.157016
0.157028
0.153819
0.147522
0.138496
0.127295
0.114603
0.101150
0.087629
0.074624
0.062571
0.051741
0.042252
0.034105
0.027218
0.021466
0.000000
0.000000
0.000000
0.000000
0.000000
0.000000
0.000000
0.000000
0.000000
0.000001
0.000002
0.000003
0.000006
0.000012
0.000024
0.000045
0.000082
0.000147
0.000257
0.000442
0.000742
0.001216
0.001945
0.003038
0.004629
0.006880
0.009976
0.014108
0.019464
0.026205
0.034443
0.044219
0.055490
0.068120
0.081877
0.096437
0.111399
0.126289
0.140574
0.153676
0.164988
0.173909
0.179888
0.182481
0.181415
0.176642
0.168366
0.157045
0.143349
0.128080
0.112088
0.096170
0.080996
0.067061
0.054666
0.043937
0.034857
0.027311
0.021134
0.000000
0.000000
0.000000
0.000000
0.000000
0.000000
0.000000
0.000000
0.000001
0.000001
0.000003
0.000005
0.000010
0.000019
0.000035
0.000065
0.000117
0.000205
0.000353
0.000596
0.000982
0.001584
0.002496
0.003845
0.005788
0.008512
0.012228
0.017159
0.023518
0.031491
0.041203
0.052697
0.065911
0.080665
0.096662
0.113488
0.130634
0.147510
0.163467
0.177824
0.189894
0.199022
0.204640
0.206318
0.203831
0.197205
0.186745
0.173019
0.156816
0.139054
0.120689
0.102604
0.085532
0.070004
0.056334
0.044637
0.034868
0.026874
0.020442
0.000000
0.000000
0.000000
0.000000
0.000000
0.000000
0.000000
0.000001
0.000001
0.000002
0.000004
0.000008
0.000016
0.000029
0.000053
0.000095
0.000167
0.000288
0.000486
0.000803
0.001300
0.002059
0.003191
0.004841
0.007184
0.010429
0.014810
0.020573
0.027954
0.037153
0.048305
0.061447
0.076495
0.093225
0.111269
0.130125
0.149173
0.167707
0.184965
0.200169
0.212563
0.221460
0.226296
0.226688
0.222485
0.213815
0.201096
0.185016
0.166476
0.146497
0.126113
0.106268
0.087727
0.071031
0.056485
0.044177
0.034026
0.025835
0.019348
0.000000
0.000000
0.000000
0.000000
0.000000
0.000000
0.000000
0.000001
0.000002
0.000004
0.000007
0.000013
0.000024
0.000044
0.000079
0.000138
0.000238
0.000403
0.000667
0.001081
0.001718
0.002673
0.004071
0.006073
0.008870
0.012689
0.017776
0.024391
0.032779
0.043145
0.055624
0.070238
0.086878
0.105274
0.124991
0.145442
0.165907
0.185574
0.203584
0.219081
0.231262
0.239433
0.243067
0.241850
0.235734
0.224964
0.210081
0.191886
0.171376
0.149647
0.127779
0.106738
0.087289
0.069956
0.055012
0.042505
0.032312
0.024196
0.017861
0.000000
0.000000
0.000000
0.000000
0.000000
0.000000
0.000001
0.000002
0.000003
0.000006
0.000011
0.000021
0.000038
0.000067
0.000117
0.000202
0.000340
0.000562
0.000913
0.001453
0.002267
0.003463
0.005183
0.007598
0.010912
0.015360
0.021191
0.028664
0.038017
0.049446
0.063065
0.078878
0.096740
0.116336
0.137176
0.158599
0.179808
0.199911
0.217977
0.233103
0.244472
0.251415
0.253468
0.250414
0.242324
0.229566
0.212797
0.192915
0.170985
0.148137
0.125460
0.103901
0.084191
0.066809
0.051978
0.039700
0.029809
0.022032
0.016044
0.000000
0.000000
0.000000
0.000000
0.000000
0.000001
0.000001
0.000003
0.000005
0.000010
0.000018
0.000033
0.000059
0.000102
0.000174
0.000292
0.000483
0.000783
0.001246
0.001946
0.002980
0.004472
0.006576
0.009474
0.013377
0.018513
0.025126
0.033453
0.043708
0.056053
0.070571
0.087226
0.105834
0.126042
0.147314
0.168942
0.190080
0.209794
0.227126
0.241164
0.251116
0.256372
0.256557
0.251568
0.241598
0.227133
0.208928
0.187946
0.165280
0.142055
0.119322
0.097973
0.078672
0.061829
0.047608
0.035961
0.026683
0.019476
0.014000
0.000000
0.000000
0.000000
0.000000
0.000001
0.000001
0.000003
0.000005
0.000009
0.000017
0.000030
0.000052
0.000091
0.000154
0.000257
0.000422
0.000682
0.001083
0.001690
0.002591
0.003896
0.005745
0.008303
0.011760
0.016324
0.022213
0.029642
0.038812
0.049888
0.062979
0.078112
0.095199
0.114013
0.134166
0.155094
0.176076
0.196257
0.214709
0.230495
0.242744
0.250729
0.253932
0.252085
0.245206
0.233604
0.217862
0.198799
0.177405
0.154759
0.131933
0.109902
0.089467
0.071199
0.055428
0.042250
0.031571
0.023158
0.016699
0.011853
0.000000
0.000000
0.000000
0.000001
0.000001
0.000002
0.000004
0.000008
0.000015
0.000027
0.000048
0.000082
0.000139
0.000231
0.000378
0.000606
0.000958
0.001490
0.002278
0.003425
0.005057
0.007327
0.010413
0.014505
0.019803
0.026501
0.034775
0.044766
0.056571
0.070222
0.085668
0.102759
0.121218
0.140628
0.160426
0.179908
0.198259
0.214610
0.228097
0.237941
0.243523
0.244436
0.240536
0.231953
0.219093
0.202605
0.183331
0.162243
0.140361
0.118666
0.098020
0.079108
0.062394
0.048120
0.036317
0.026853
0.019478
0.013880
0.009731
0.000000
0.000000
0.000001
0.000001
0.000002
0.000004
0.000007
0.000014
0.000025
0.000044
0.000076
0.000128
0.000212
0.000345
0.000551
0.000866
0.001338
0.002036
0.003049
0.004493
0.006511
0.009268
0.012948
0.017743
0.023837
0.031388
0.040519
0.051296
0.063726
0.077743
0.093205
0.109884
0.127452
0.145478
0.163418
0.180625
0.196372
0.209899
0.220471
0.227446
0.230339
0.228880
0.223044
0.213059
0.199397
0.182732
0.163890
0.143780
0.123321
0.103370
0.084654
0.067727
0.052942
0.040452
0.030233
0.022124
0.015872
0.011180
0.007743
0.000000
0.000001
0.000001
0.000002
0.000004
0.000007
0.000013
0.000023
0.000040
0.000070
0.000119
0.000197
0.000320
0.000510
0.000799
0.001227
0.001856
0.002763
0.004050
0.005847
0.008310
0.011613
0.015948
0.021498
0.028425
0.036847
0.046819
0.058321
0.071256
0.085446
0.100643
0.116534
0.132746
0.148841
0.164320
0.178629
0.191170
0.201341
0.208576
0.212405
0.212504
0.208744
0.201208
0.190199
0.176218
0.159925
0.142086
0.123510
0.104986
0.087224
0.070805
0.056147
0.043496
0.032927
0.024371
0.017653
0.012529
0.008724
0.005970
0.000001
0.000001
0.000002
0.000004
0.000007
0.000012
0.000022
0.000038
0.000065
0.000111
0.000184
0.000300
0.000478
0.000748
0.001147
0.001727
0.002556
0.003723
0.005341
0.007549
0.010513
0.014415
0.019444
0.025774
0.033538
0.042808
0.053567
0.065700
0.078996
0.093162
0.107838
0.122627
0.137111
0.150864
0.163453
0.174442
0.183398
0.189911
0.193614
0.194232
0.191612
0.185757
0.176844
0.165219
0.151379
0.135931
0.119543
0.102899
0.086639
0.071317
0.057367
0.045081
0.034606
0.025954
0.019026
0.013643
0.009579
0.006596
0.004460
0.000001
0.000002
0.000004
0.000007
0.000012
0.000021
0.000036
0.000062
0.000104
0.000173
0.000283
0.000452
0.000707
0.001085
0.001632
0.002409
0.003492
0.004979
0.006989
0.009670
0.013187
0.017726
0.023466
0.030567
0.039129
0.049174
0.060612
0.073233
0.086718
0.100655
0.114581
0.128019
0.140518
0.151673
0.161134
0.168607
0.173843
0.176640
0.176850
0.174395
0.169288
0.161653
0.151734
0.139893
0.126587
0.112339
0.097700
0.083210
0.069352
0.056531
0.045042
0.035066
0.026668
0.019813
0.014384
0.010211
0.007095
0.004831
0.003228
0.000002
0.000004
0.000007
0.000012
0.000021
0.000036
0.000061
0.000101
0.000166
0.000269
0.000430
0.000673
0.001034
0.001557
0.002298
0.003327
0.004727
0.006602
0.009073
0.012286
0.016404
0.021600
0.028042
0.035865
0.045136
0.055825
0.067775
0.080692
0.094154
0.107648
0.120616
0.132519
0.142883
0.151337
0.157628
0.161609
0.163221
0.162478
0.159441
0.154223
0.146986
0.137955
0.127414
0.115710
0.103238
0.090418
0.077669
0.065384
0.053898
0.043474
0.034291
0.026436
0.019912
0.014653
0.010535
0.007404
0.005091
0.003428
0.002264
0.000005
0.000008
0.000013
0.000022
0.000037
0.000062
0.000101
0.000164
0.000263
0.000416
0.000648
0.000993
0.001496
0.002209
0.003200
0.004545
0.006335
0.008673
0.011677
0.015482
0.020236
0.026094
0.033197
0.041652
0.051491
0.062637
0.074876
0.087840
0.101031
0.113851
0.125673
0.135912
0.144090
0.149879
0.153125
0.153827
0.152112
0.148190
0.142319
0.134776
0.125851
0.115837
0.105036
0.093759
0.082321
0.071029
0.060171
0.050000
0.040719
0.032471
0.025336
0.019330
0.014414
0.010502
0.007476
0.005201
0.003539
0.002357
0.001539
0.000009
0.000014
0.000024
0.000040
0.000065
0.000105
0.000167
0.000264
0.000413
0.000637
0.000970
0.001454
0.002143
0.003102
0.004407
0.006143
0.008401
0.011280
0.014888
0.019338
0.024752
0.031253
0.038949
0.047910
0.058131
0.069496
0.081747
0.094468
0.107105
0.119011
0.129514
0.138008
0.144026
0.147293
0.147750
0.145534
0.140932
0.134329
0.126143
0.116790
0.106651
0.096062
0.085320
0.074685
0.064384
0.054613
0.045539
0.037291
0.029958
0.023589
0.018188
0.013722
0.010123
0.007299
0.005143
0.003541
0.002384
0.001571
0.001014
0.000016
0.000026
0.000043
0.000070
0.000112
0.000176
0.000275
0.000423
0.000645
0.000971
0.001442
0.002111
0.003043
0.004314
0.006007
0.008212
0.011020
0.014519
0.018794
0.023930
0.030011
0.037114
0.045305
0.054611
0.064993
0.076303
0.088256
0.100415
0.112202
0.122950
0.131978
0.138682
0.142625
0.143588
0.141601
0.136915
0.129954
0.121237
0.111308
0.100680
0.089793
0.079003
0.068582
0.058730
0.049588
0.041251
0.033780
0.027202
0.021517
0.016702
0.012708
0.009470
0.006905
0.004924
0.003432
0.002338
0.001558
0.001015
0.000648
0.000028
0.000047
0.000075
0.000120
0.000188
0.000292
0.000445
0.000672
0.001000
0.001469
0.002130
0.003045
0.004290
0.005948
0.008111
0.010869
0.014305
0.018490
0.023482
0.029324
0.036052
0.043690
0.052251
0.061718
0.072016
0.082979
0.094314
0.105586
0.116229
0.125590
0.133010
0.137914
0.139906
0.138828
0.134785
0.128119
0.119352
0.109101
0.097992
0.086598
0.075389
0.064714
0.054811
0.045817
0.037794
0.030753
0.024666
0.019483
0.015140
0.011560
0.008664
0.006367
0.004583
0.003228
0.002224
0.001499
0.000987
0.000636
0.000401
0.000050
0.000080
0.000128
0.000201
0.000311
0.000474
0.000712
0.001052
0.001534
0.002204
0.003124
0.004363
0.006006
0.008142
0.010863
0.014255
0.018388
0.023310
0.029041
0.035580
0.042903
0.050975
0.059754
0.069176
0.079137
0.089462
0.099870
0.109954
0.119187
0.126966
0.132679
0.135805
0.135999
0.133161
0.127456
0.119291
0.109249
0.098005
0.086229
0.074517
0.063341
0.053028
0.043773
0.035656
0.028671
0.022760
0.017829
0.013774
0.010485
0.007855
0.005785
0.004184
0.002967
0.002062
0.001403
0.000933
0.000608
0.000387
0.000241
0.000084
0.000135
0.000213
0.000330
0.000503
0.000756
0.001116
0.001623
0.002323
0.003273
0.004541
0.006205
0.008352
0.011070
0.014445
0.018551
0.023436
0.029118
0.035577
0.042758
0.050579
0.058946
0.067760
0.076916
0.086287
0.095702
0.104908
0.113547
0.121159
0.127211
0.131166
0.132570
0.131138
0.126821
0.119827
0.110602
0.099758
0.087989
0.075975
0.064306
0.053434
0.043655
0.035118
0.027851
0.021796
0.016842
0.012851
0.009680
0.007195
0.005272
0.003804
0.002699
0.001882
0.001287
0.000863
0.000566
0.000364
0.000229
0.000141
0.000138
0.000220
0.000343
0.000527
0.000794
0.001177
0.001716
0.002458
0.003463
0.004796
0.006530
0.008747
0.011527
0.014949
0.019084
0.023979
0.029654
0.036089
0.043218
0.050936
0.059107
0.067582
0.076214
0.084867
0.093402
0.101664
0.109440
0.116441
0.122287
0.126535
0.128737
0.128512
0.125638
0.120110
0.112163
0.102254
0.090997
0.079076
0.067152
0.055789
0.045406
0.036259
0.028455
0.021978
0.016731
0.012567
0.009320
0.006826
0.004938
0.003526
0.002483
0.001723
0.001176
0.000790
0.000520
0.000336
0.000213
0.000132
0.000080
0.000221
0.000348
0.000538
0.000817
0.001219
0.001788
0.002577
0.003647
0.005069
0.006917
0.009267
0.012194
0.015766
0.020038
0.025048
0.030807
0.037292
0.044437
0.052133
0.060227
0.068540
0.076884
0.085080
0.092974
0.100434
0.107330
0.113502
0.118738
0.122748
0.125187
0.125695
0.123973
0.119851
0.113360
0.104745
0.094456
0.083085
0.071284
0.059678
0.048789
0.038995
0.030512
0.023409
0.017638
0.013073
0.009545
0.006874
0.004887
0.003431
0.002379
0.001629
0.001101
0.000733
0.000481
0.000310
0.000196
0.000122
0.000074
0.000045
0.000342
0.000534
0.000819
0.001232
0.001822
0.002647
0.003776
0.005288
0.007267
0.009794
0.012943
0.016774
0.021329
0.026621
0.032639
0.039337
0.046638
0.054422
0.062536
0.070791
0.078982
0.086902
0.094367
0.101227
0.107373
0.112714
0.117156
0.120560
0.122732
0.123417
0.122345
0.119283
0.114112
0.106881
0.097833
0.087395
0.076121
0.064619
0.053463
0.043130
0.033954
0.026114
0.019648
0.014485
0.010480
0.007452
0.005217
0.003599
0.002450
0.001646
0.001092
0.000716
0.000463
0.000295
0.000185
0.000115
0.000070
0.000042
0.000024
0.000512
0.000794
0.001208
0.001804
0.002646
0.003812
0.005392
0.007483
0.010185
0.013585
0.017748
0.022711
0.028470
0.034980
0.042157
0.049879
0.057995
0.066326
0.074677
0.082835
0.090591
0.097750
0.104151
0.109678
0.114266
0.117881
0.120493
0.122045
0.122422
0.121456
0.118947
0.114722
0.108692
0.100915
0.091620
0.081198
0.070156
0.059050
0.048401
0.038639
0.030058
0.022804
0.016891
0.012232
0.008672
0.006029
0.004116
0.002763
0.001826
0.001190
0.000764
0.000484
0.000303
0.000187
0.000113
0.000068
0.000040
0.000023
0.000013
0.000743
0.001145
0.001729
0.002564
0.003733
0.005338
0.007495
0.010322
0.013936
0.018426
0.023847
0.030195
0.037408
0.045359
0.053865
0.062706
0.071641
0.080422
0.088812
0.096593
0.103573
0.109603
0.114580
0.118456
0.121233
0.122949
0.123647
0.123341
0.121990
0.119491
0.115700
0.110482
0.103766
0.095604
0.086200
0.075903
0.065168
0.054496
0.044358
0.035138
0.027095
0.020350
0.014899
0.010645
0.007432
0.005077
0.003398
0.002230
0.001438
0.000911
0.000568
0.000348
0.000210
0.000125
0.000073
0.000042
0.000024
0.000014
0.000007
0.001043
0.001598
0.002400
0.003536
0.005115
0.007268
0.010136
0.013868
0.018594
0.024408
0.031343
0.039348
0.048280
0.057909
0.067930
0.078002
0.087771
0.096913
0.105151
0.112273
0.118136
0.122665
0.125852
0.127748
0.128453
0.128092
0.126783
0.124610
0.121589
0.117663
0.112727
0.106662
0.099401
0.090978
0.081560
0.071451
0.061055
0.050817
0.041161
0.032433
0.024860
0.018543
0.013469
0.009535
0.006587
0.004444
0.002932
0.001894
0.001199
0.000744
0.000453
0.000270
0.000159
0.000091
0.000052
0.000029
0.000016
0.000008
0.000004
0.001417
0.002161
0.003229
0.004731
0.006806
0.009615
0.013334
0.018138
0.024178
0.031547
0.040251
0.050179
0.061094
0.072639
0.084367
0.095788
0.106424
0.115860
0.123783
0.129998
0.134430
0.137111
0.138162
0.137764
0.136139
0.133513
0.130091
0.126015
0.121350
0.116070
0.110084
0.103277
0.095568
0.086962
0.077588
0.067698
0.057643
0.047821
0.038609
0.030318
0.023151
0.017195
0.012428
0.008748
0.006002
0.004018
0.002627
0.001679
0.001050
0.000642
0.000385
0.000225
0.000129
0.000073
0.000040
0.000021
0.000011
0.000006
0.000003
0.001864
0.002831
0.004211
0.006143
0.008795
0.012364
0.017061
0.023094
0.030631
0.039765
0.050467
0.062559
0.075695
0.089373
0.102984
0.115873
0.127421
0.137115
0.144602
0.149714
0.152464
0.153012
0.151632
0.148665
0.144473
0.139403
0.133744
0.127704
0.121380
0.114766
0.107773
0.100275
0.092165
0.083414
0.074104
0.064438
0.054716
0.045285
0.036483
0.028587
0.021780
0.016135
0.011627
0.008156
0.005574
0.003714
0.002415
0.001534
0.000952
0.000577
0.000342
0.000198
0.000112
0.000062
0.000033
0.000018
0.000009
0.000004
0.000002
0.002372
0.003593
0.005326
0.007741
0.011040
0.015457
0.021241
0.028631
0.037815
0.048880
0.061763
0.076205
0.091744
0.107722
0.123355
0.137811
0.150318
0.160258
0.167241
0.171129
0.172028
0.170247
0.166228
0.160487
0.153545
0.145875
0.137864
0.129776
0.121743
0.113770
0.105761
0.097568
0.089057
0.080157
0.070905
0.061452
0.052046
0.042987
0.034572
0.027048
0.020576
0.015219
0.010947
0.007663
0.005223
0.003470
0.002249
0.001423
0.000879
0.000530
0.000312
0.000180
0.000101
0.000055
0.000029
0.000015
0.000008
0.000004
0.000002
0.002925
0.004421
0.006537
0.009474
0.013471
0.018798
0.025745
0.034580
0.045509
0.058613
0.073784
0.090686
0.108729
0.127098
0.144826
0.160901
0.174395
0.184587
0.191043
0.193659
0.192640
0.188442
0.181687
0.173069
0.163273
0.152909
0.142458
0.132249
0.122445
0.113058
0.103984
0.095055
0.086105
0.077023
0.067801
0.058539
0.049434
0.040736
0.032703
0.025547
0.019407
0.014334
0.010296
0.007195
0.004895
0.003245
0.002097
0.001323
0.000814
0.000489
0.000287
0.000164
0.000092
0.000050
0.000026
0.000014
0.000007
0.000003
0.000002
0.003496
0.005277
0.007792
0.011272
0.015992
0.022262
0.030407
0.040725
0.053435
0.068607
0.086089
0.105459
0.126003
0.146750
0.166553
0.184228
0.198696
0.209134
0.215071
0.216435
0.213525
0.206941
0.197476
0.186001
0.173361
0.160297
0.147389
0.135026
0.123407
0.112554
0.102359
0.092636
0.083192
0.073881
0.064651
0.055554
0.046736
0.038397
0.030750
0.023974
0.018180
0.013407
0.009614
0.006707
0.004554
0.003012
0.001942
0.001221
0.000749
0.000449
0.000262
0.000149
0.000083
0.000045
0.000024
0.000012
0.000006
0.000003
0.000001
0.004054
0.006118
0.009030
0.013052
0.018495
0.025705
0.035040
0.046823
0.061283
0.078470
0.098188
0.119926
0.142852
0.165842
0.187589
0.206747
0.222105
0.232751
0.238182
0.238357
0.233663
0.224832
0.212810
0.198629
0.183282
0.167629
0.152342
0.137872
0.124453
0.112123
0.100775
0.090215
0.080230
0.070646
0.061373
0.052419
0.043878
0.035902
0.028655
0.022277
0.016852
0.012400
0.008873
0.006177
0.004185
0.002761
0.001775
0.001113
0.000680
0.000406
0.000236
0.000134
0.000074
0.000040
0.000021
0.000011
0.000005
0.000003
0.000001
0.004568
0.006901
0.010191
0.014733
0.020871
0.028984
0.039460
0.052639
0.068751
0.087824
0.109606
0.133504
0.158570
0.183547
0.206983
0.227398
0.243472
0.254226
0.259139
0.258202
0.251882
0.241025
0.226709
0.210099
0.192312
0.174310
0.156845
0.140421
0.125308
0.111564
0.099092
0.087697
0.077156
0.067279
0.057945
0.049120
0.040854
0.033246
0.026413
0.020453
0.015420
0.011311
0.008071
0.005603
0.003785
0.002490
0.001595
0.000996
0.000607
0.000360
0.000209
0.000118
0.000065
0.000035
0.000018
0.000009
0.000004
0.000002
0.000001
0.005013
0.007588
0.011225
0.016247
0.023029
0.031981
0.043512
0.057974
0.075586
0.096345
0.119940
0.145695
0.172554
0.199143
0.223894
0.245225
0.261742
0.272426
0.276757
0.274768
0.266999
0.254387
0.238118
0.219459
0.199616
0.179632
0.160313
0.142209
0.125618
0.110621
0.097135
0.084975
0.073919
0.063769
0.054381
0.045692
0.037705
0.030473
0.024066
0.018539
0.013914
0.010165
0.007226
0.004998
0.003365
0.002205
0.001407
0.000875
0.000531
0.000314
0.000181
0.000102
0.000056
0.000030
0.000015
0.000008
0.000004
0.000002
0.000001
0.005369
0.008153
0.012094
0.017544
0.024905
0.034612
0.047088
0.062686
0.081607
0.103804
0.128902
0.156137
0.184358
0.212093
0.237688
0.259495
0.276085
0.286436
0.290058
0.287034
0.277974
0.263894
0.246054
0.225790
0.204366
0.182866
0.162130
0.142732
0.124991
0.109005
0.094708
0.081933
0.070468
0.060114
0.050718
0.042190
0.034498
0.027654
0.021680
0.016593
0.012381
0.008998
0.006366
0.004384
0.002938
0.001917
0.001218
0.000754
0.000455
0.000267
0.000153
0.000086
0.000047
0.000025
0.000013
0.000006
0.000003
0.000001
0.000001
0.005629
0.008586
0.012785
0.018603
0.026469
0.036835
0.050133
0.066706
0.086723
0.110084
0.136338
0.164636
0.193739
0.222097
0.247998
0.269770
0.285991
0.295675
0.298390
0.294292
0.284061
0.268778
0.249752
0.228355
0.205868
0.183384
0.161747
0.141529
0.123055
0.106435
0.091617
0.078453
0.066748
0.056311
0.046988
0.038672
0.031305
0.024861
0.019325
0.014676
0.010874
0.007853
0.005524
0.003783
0.002522
0.001637
0.001035
0.000637
0.000382
0.000223
0.000127
0.000071
0.000038
0.000020
0.000010
0.000005
0.000002
0.000001
0.000001
0.005797
0.008889
0.013299
0.019428
0.027723
0.038652
0.052645
0.070027
0.090922
0.115166
0.142225
0.171163
0.200657
0.229097
0.254747
0.275943
0.291314
0.299950
0.301513
0.296247
0.284915
0.268650
0.248792
0.226714
0.203684
0.180767
0.158776
0.138260
0.119527
0.102687
0.087698
0.074429
0.062705
0.052349
0.043213
0.035183
0.028182
0.022156
0.017060
0.012842
0.009438
0.006765
0.004726
0.003216
0.002131
0.001375
0.000864
0.000529
0.000315
0.000183
0.000104
0.000057
0.000031
0.000016
0.000008
0.000004
0.000002
0.000001
0.000000
0.005885
0.009079
0.013657
0.020040
0.028694
0.040093
0.054660
0.072690
0.094254
0.119114
0.146645
0.175819
0.205239
0.233251
0.258115
0.278214
0.292262
0.299464
0.299605
0.293046
0.280634
0.263556
0.243163
0.220808
0.197713
0.174882
0.153069
0.132772
0.114265
0.097639
0.082855
0.069794
0.058301
0.048217
0.039404
0.031750
0.025166
0.019580
0.014926
0.011129
0.008106
0.005761
0.003992
0.002697
0.001774
0.001137
0.000710
0.000432
0.000256
0.000148
0.000083
0.000045
0.000024
0.000013
0.000006
0.000003
0.000001
0.000001
0.000000
0.005909
0.009178
0.013887
0.020475
0.029421
0.041203
0.056231
0.074761
0.096803
0.122035
0.149739
0.178793
0.207731
0.234868
0.258481
0.277027
0.289335
0.294757
0.293227
0.285239
0.271740
0.253967
0.233273
0.210971
0.188212
0.165917
0.144752
0.125142
0.107307
0.091305
0.077089
0.064545
0.053535
0.043919
0.035572
0.028388
0.022277
0.017157
0.012946
0.009557
0.006894
0.004855
0.003335
0.002234
0.001458
0.000928
0.000575
0.000347
0.000204
0.000117
0.000065
0.000035
0.000019
0.000010
0.000005
0.000002
0.000001
0.000001
0.000000
0.005890
0.009211
0.014019
0.020768
0.029947
0.042034
0.057416
0.076309
0.098658
0.124049
0.151670
0.180309
0.208436
0.234342
0.256343
0.272984
0.283234
0.286609
0.283215
0.273694
0.259095
0.240708
0.219884
0.197881
0.175766
0.154356
0.134213
0.115669
0.098874
0.083844
0.070508
0.058753
0.048453
0.039483
0.031734
0.025110
0.019524
0.014893
0.011127
0.008133
0.005809
0.004051
0.002757
0.001830
0.001185
0.000748
0.000460
0.000275
0.000161
0.000091
0.000051
0.000027
0.000014
0.000007
0.000004
0.000002
0.000001
0.000000
0.000000
0.005846
0.009202
0.014083
0.020954
0.030312
0.042627
0.058266
0.077398
0.099897
0.125266
0.152596
0.180590
0.207661
0.232090
0.252237
0.266751
0.274749
0.275926
0.270564
0.259459
0.243769
0.224834